LAMMPS (23 Jun 2022)

units real
boundary p p p
atom_style full
region mybox block -500.000000 500.000000 -500.000000 500.000000 -500.000000 500.000000
create_box 2 mybox bond/types 1 angle/types 0 dihedral/types 0 extra/special/per/atom 20 extra/bond/per/atom 20 extra/angle/per/atom 20
Created orthogonal box = (-500 -500 -500) to (500 500 500)
  1 by 1 by 1 MPI processor grid
#variable string MAA type 1
#variable Na type 2
molecule pol PDMAEMA.mol
Read molecule template pol:
  1 molecules
  0 fragments
  200 atoms with max type 2
  99 bonds with max type 1
  0 angles with max type 0
  0 dihedrals with max type 0
  0 impropers with max type 0
mass 1 157.21
mass 2 35.453
dielectric 81.2
bond_style harmonic
bond_coeff 1 0.57 5
pair_style lj/cut/coul/long 4.568 500.0
pair_coeff 1 1 0.7 4.0 4.49
pair_coeff 2 2 0.1 4.3 4.8
kspace_style pppm 1e-6
create_atoms 0 single 0 0 0 mol pol 123
Created 200 atoms
  using lattice units in orthogonal box = (-500 -500 -500) to (500 500 500)
  create_atoms CPU = 0.002 seconds

velocity all create 300.0 4928459
pair_modify shift yes mix arithmetic
fix nvt all langevin 300 300 100.0 6138895 gjf vfull
fix nve all nve
dump xtc all xtc 10000 PDMAEMA.xtc
thermo      10000
timestep 2
run     50000000
PPPM initialization ...
  using 12-bit tables for long-range coulomb (src/kspace.cpp:342)
  G vector (1/distance) = 0.0045578333
  grid = 6 6 6
  stencil order = 5
  estimated absolute RMS force accuracy = 2.8540482e-06
  estimated relative force accuracy = 8.5948814e-09
  using double precision FFTW3
  3d grid and FFT values/proc = 1331 216
Generated 1 of 1 mixed pair_coeff terms from arithmetic mixing rule
Neighbor list info ...
  update every 1 steps, delay 10 steps, check yes
  max neighbors/atom: 2000, page size: 100000
  master list distance cutoff = 502
  ghost atom cutoff = 502
  binsize = 251, bins = 4 4 4
  1 neighbor lists, perpetual/occasional/extra = 1 0 0
  (1) pair lj/cut/coul/long, perpetual
      attributes: half, newton on
      pair build: half/bin/newton
      stencil: half/bin/3d
      bin: standard
Per MPI rank memory allocation (min/avg/max) = 16.43 | 16.43 | 16.43 Mbytes
   Step          Temp          E_pair         E_mol          TotEng         Press     
         0   302.88825     -167.71985      5.365682e-27   11.947763      0.0043797546 
     10000   294.63252     -163.98156      41.423226      52.212142     -0.0027513038 
     20000   303.50529     -160.81941      47.917056      67.13128      -0.004603073  
     30000   309.51006     -151.99956      56.603626      88.19962      -0.0054287845 
     40000   288.78156     -139.91441      43.451254      74.836638     -0.0051434952 
     50000   248.49997     -142.76164      52.963955      57.607826     -0.0063305688 
     60000   280.5007      -137.82101      47.228042      75.794773     -0.00494961   
     70000   304.00364     -124.06128      56.212042      112.48001     -0.0043193173 
     80000   276.94        -126.98347      60.606814      97.898943     -0.0069922593 
     90000   323.00655     -128.2502       47.650169      111.00138     -0.0043166654 
    100000   275.867       -125.44114      59.316698      97.514675     -0.006084512  
    110000   311.12717     -127.96109      55.545269      112.13897     -0.0033768341 
    120000   326.75073     -120.26542      48.492302      122.04927     -0.0043180676 
    130000   298.96287     -120.32214      56.633007      113.65002     -0.004678608  
    140000   303.31194     -121.2469       57.923601      116.59565     -0.0044553024 
    150000   294.29596     -125.84274      51.216961      99.945051     -0.0033800189 
    160000   353.03649     -119.83036      57.792367      147.37661     -0.0041575396 
    170000   312.20005     -120.3982       52.15684       116.94984     -0.0050756156 
    180000   305.46809     -116.0613       60.174488      125.31111     -0.004481901  
    190000   283.27393     -123.77511      41.379333      85.636997     -0.0030011166 
    200000   269.98556     -120.9328       52.525288      91.742845     -0.0067567432 
    210000   293.40635     -116.01983      63.087145      121.11045     -0.0062580444 
    220000   329.97911     -110.72015      56.002084      141.01934     -0.0038570566 
    230000   265.01323     -110.60596      46.973878      93.568788     -0.0046900328 
    240000   310.30246     -113.96216      54.135783      124.23921     -0.0047199682 
    250000   323.87477     -114.54837      54.297371      131.86542     -0.0041418234 
    260000   295.17242     -113.47563      56.244767      117.85987     -0.0057990582 
    270000   303.26447     -104.71476      46.904172      122.0802      -0.004873087  
    280000   296.8805      -101.56481      73.040087      147.57921     -0.0079429547 
    290000   320.77195     -107.83311      57.303679      139.74646     -0.0047557937 
    300000   293.98678     -108.71891      58.694688      124.3632      -0.0062236109 
    310000   305.24927     -107.35875      50.419767      124.12914     -0.0041098658 
    320000   296.27779     -110.78759      60.521993      125.48082     -0.0047684812 
    330000   304.95429     -106.09105      55.960303      130.76241     -0.0049347125 
    340000   281.05481     -105.71942      59.591011      120.58803     -0.0045354772 
    350000   286.50042     -101.87004      57.251705      125.32832     -0.0034748316 
    360000   327.47166     -104.8053       60.181831      149.62656     -0.0045130334 
    370000   329.02293     -110.6295       60.354494      144.89521     -0.0037082361 
    380000   291.07432     -108.01142      49.674327      114.32273     -0.0042724501 
    390000   298.75004     -107.84244      55.63262       125.00309     -0.0039071279 
    400000   298.27203     -107.56917      52.34806       121.70825     -0.0031120219 
    410000   286.7915      -104.17407      51.456906      117.40216     -0.0037504965 
    420000   286.14974     -106.05743      44.606908      108.28812     -0.0040842698 
    430000   296.65383     -98.897711      61.539653      138.61142     -0.0045094911 
    440000   300.12479     -104.06468      50.301609      124.26531     -0.0029929331 
    450000   327.09364     -104.29932      46.192071      135.91855     -0.0026344405 
    460000   288.59234     -105.8368       51.470774      116.82152     -0.0042232891 
    470000   296.91967     -99.176185      53.958286      130.90926     -0.0042695455 
    480000   293.30386     -100.60934      51.289751      124.66274     -0.004982474  
    490000   305.48631     -95.229274      53.004494      138.98395     -0.0040355987 
    500000   269.44996     -95.901381      61.025975      124.95724     -0.0044565306 
    510000   286.12741     -91.818787      42.059288      119.9659      -0.0038476592 
    520000   304.35966     -89.322981      55.801058      147.0185      -0.0038108974 
    530000   343.26011     -90.072942      49.423332      162.96583     -0.001670296  
    540000   322.26045     -84.620284      49.106641      155.6452      -0.0011541698 
    550000   304.3577      -91.97382       47.758894      136.32434     -0.0027918734 
    560000   311.35392     -89.014509      56.370219      152.045       -0.0039382467 
    570000   296.38635     -95.073001      52.983834      133.72164     -0.0024407127 
    580000   296.41647     -101.9941       52.145685      125.98026     -0.0036643506 
    590000   294.39331     -97.550424      43.199339      120.27749     -0.0024654332 
    600000   268.07215     -97.55773       45.592608      107.05024     -0.0035704152 
    610000   299.44252     -92.381707      65.834814      151.07678     -0.0056483569 
    620000   286.88474     -91.178023      45.531196      124.52781     -0.0032002361 
    630000   317.01884     -93.610493      58.670636      153.10976     -0.0038582009 
    640000   310.01937     -98.888127      48.011873      133.02141     -0.0038438031 
    650000   309.64658     -91.350855      48.275773      140.60145     -0.0030633832 
    660000   284.96212     -95.320167      52.869354      126.58336     -0.0036906903 
    670000   289.89961     -95.034153      50.572729      127.50158     -0.0039252373 
    680000   330.53131     -90.939518      44.494625      149.62006     -0.0016161926 
    690000   300.04753     -98.388122      55.772657      135.36709     -0.0043668151 
    700000   327.77885     -102.15706      52.777954      145.05315     -0.0043682074 
    710000   281.93164     -98.150554      53.189871      122.27587     -0.0045993928 
    720000   325.14128     -95.683235      40.999608      138.18407     -0.0024062166 
    730000   320.17475     -96.379354      55.815824      149.35811     -0.0045040992 
    740000   286.56051     -96.685092      48.637597      121.93481     -0.003946902  
    750000   306.14029     -100.41328      43.262472      124.44586     -0.0027738062 
    760000   315.18303     -104.57227      49.539163      131.92755     -0.001195206  
    770000   300.60422     -100.81915      58.274993      135.76861     -0.0040989126 
    780000   284.26954     -103.19063      60.07697       125.50969     -0.004895214  
    790000   308.80848     -96.869445      51.786069      138.09601     -0.0044632029 
    800000   288.73822     -97.962505      58.864115      132.17569     -0.0050594609 
    810000   290.8346      -93.120578      56.689213      136.08625     -0.0039673218 
    820000   303.92724     -95.589867      54.223328      138.91738     -0.0031810861 
    830000   283.29738     -94.173111      55.061922      128.93549     -0.0052075997 
    840000   300.15721     -100.75145      50.644743      127.94091     -0.0030265511 
    850000   315.77933     -96.266487      42.202053      133.24993     -0.0027285986 
    860000   312.7681      -100.37829      47.314127      132.46399     -0.0029579134 
    870000   314.20564     -96.235919      55.792226      145.93718     -0.0050143298 
    880000   318.56448     -91.172148      54.272831      152.06714     -0.0042554171 
    890000   324.26161     -96.645923      50.807755      146.50773     -0.0022792586 
    900000   275.67234     -98.811701      58.589341      123.30129     -0.0058920584 
    910000   288.12715     -93.225548      57.682076      135.36813     -0.0049266404 
    920000   318.4926      -92.663404      40.186659      136.44708     -0.0011328395 
    930000   273.3842      -89.338976      54.602527      127.42992     -0.00387033   
    940000   318.27277     -91.431824      57.751364      155.11296     -0.0045756256 
    950000   324.19332     -91.034884      42.688253      143.95875     -0.0016291945 
    960000   314.12912     -92.689892      52.137721      145.78332     -0.0035231686 
    970000   284.897       -90.316718      46.618211      125.29704     -0.003588004  
    980000   268.81135     -93.994808      42.018296      107.47733     -0.0023595475 
    990000   284.05516     -97.497024      50.132793      121.13195     -0.0021142856 
   1000000   301.90656     -91.51177       51.344834      138.91836     -0.0031089254 
   1010000   308.41292     -84.693077      54.999386      153.25106     -0.0033880322 
   1020000   299.8861      -93.890572      49.431629      133.42786     -0.0036132373 
   1030000   291.0261      -94.001378      56.399615      135.02945     -0.0052549181 
   1040000   320.77296     -88.984997      51.264334      152.55583     -0.0034778486 
   1050000   281.19295     -91.544003      56.996112      132.25048     -0.0057715127 
   1060000   308.7456      -90.714233      57.804563      150.23242     -0.0043818513 
   1070000   353.41203     -89.882116      56.442721      176.19798     -0.001862604  
   1080000   334.38485     -90.932955      47.667127      155.08498     -0.0028133976 
   1090000   270.21473     -91.814587      45.499191      113.9709      -0.0037207829 
   1100000   301.59449     -86.608902      57.101057      149.39234     -0.0046241932 
   1110000   281.43172     -82.236726      49.250144      133.95343     -0.0042434217 
   1120000   306.86549     -89.760469      50.126485      142.39286     -0.0032413624 
   1130000   310.52024     -92.694284      55.932371      147.43285     -0.0043183488 
   1140000   300.34412     -84.086744      51.560181      145.63192     -0.0038806267 
   1150000   333.35208     -88.102957      48.920262      158.55549     -0.0016509982 
   1160000   320.02517     -79.837592      44.849671      154.84499     -0.0024110724 
   1170000   308.21013     -86.592768      54.920674      151.15236     -0.0050980152 
   1180000   288.39848     -82.075426      46.676863      135.67399     -0.0015262042 
   1190000   307.65118     -82.950881      51.627385      151.1694      -0.0036760733 
   1200000   329.93271     -82.561075      53.65247       166.80128     -0.001544996  
   1210000   293.39806     -87.587192      59.566256      146.01728     -0.0040210558 
   1220000   294.09492     -83.335123      47.830539      138.94699     -0.0021912145 
   1230000   296.07754     -89.038964      53.908921      140.49759     -0.0033641798 
   1240000   308.40005     -91.664315      56.215267      147.48806     -0.0047384044 
   1250000   280.25705     -88.318599      51.329193      129.25381     -0.0042544594 
   1260000   297.28017     -86.283943      57.055169      147.11223     -0.003862736  
   1270000   304.42529     -87.591438      42.128607      135.11653     -0.001733835  
   1280000   297.80756     -77.25063       53.620884      153.0241      -0.0035934148 
   1290000   270.60819     -82.139095      51.410614      129.79121     -0.0023946137 
   1300000   286.8638      -79.92601       45.308483      135.54469     -0.0032473469 
   1310000   322.80767     -79.578333      59.360381      171.26549     -0.0050171223 
   1320000   294.56292     -78.592728      47.438618      143.57508     -0.0040744452 
   1330000   310.26098     -74.112502      50.221518      160.15        -0.0045274798 
   1340000   287.68137     -79.617062      57.901927      148.93204     -0.0038144521 
   1350000   277.55685     -80.074514      46.598789      131.16578     -0.0036752856 
   1360000   315.73248     -80.018531      52.772394      160.04043     -0.0030856044 
   1370000   291.96394     -86.199467      35.691636      122.67969     -0.0014306538 
   1380000   309.81858     -85.05085       59.751246      158.47896     -0.0048139325 
   1390000   323.95111     -82.75661       46.546217      155.95132     -0.0023356266 
   1400000   295.97268     -83.852283      50.794681      142.50783     -0.00374474   
   1410000   292.1825      -79.887368      56.702941      150.13274     -0.0031614987 
   1420000   346.19993     -78.047866      61.986298      189.29772     -0.0032572537 
   1430000   335.7575      -81.301509      56.362372      174.2259      -0.0033259031 
   1440000   327.375       -80.392203      60.831834      174.63232     -0.0047519539 
   1450000   294.56019     -81.060437      50.118436      143.78556     -0.0027836071 
   1460000   305.50279     -81.893222      57.282607      156.6079      -0.0042862907 
   1470000   300.89506     -72.828992      46.1309        151.7872      -0.0024778371 
   1480000   316.15021     -73.312739      57.066306      171.28793     -0.0040866812 
   1490000   321.99075     -79.945469      55.369589      166.42298     -0.0029461929 
   1500000   310.12686     -83.227423      53.449484      154.18348     -0.004088777  
   1510000   320.56099     -78.582673      59.079032      170.64711     -0.004028173  
   1520000   339.99286     -81.149758      44.815335      165.34295     -0.0023910803 
   1530000   318.29122     -80.115769      61.132066      169.82066     -0.0043087944 
   1540000   338.45955     -82.212659      48.947835      167.50302     -0.0024551288 
   1550000   288.78916     -74.810075      49.398582      145.8928      -0.0033113084 
   1560000   288.96747     -81.90887       41.700078      131.20128     -0.002290553  
   1570000   280.40741     -78.438678      47.63271       135.52644     -0.0041488587 
   1580000   298.61439     -77.041717      61.517643      161.60837     -0.0040166002 
   1590000   304.13378     -71.522907      52.478671      161.36221     -0.0040282345 
   1600000   283.64132     -69.625617      50.955041      149.58012     -0.0038947518 
   1610000   313.51536     -70.741381      49.74816       164.9782      -0.0029392449 
   1620000   297.27876     -71.97883       50.515148      154.87649     -0.0033714823 
   1630000   324.39852     -73.070199      46.522826      165.87973     -0.0017523182 
   1640000   275.48457     -68.230152      56.542102      151.72422     -0.0039659733 
   1650000   293.532       -69.414308      46.760976      151.46433     -0.0016830113 
   1660000   287.8146      -71.275607      47.530116      146.98072     -0.0022379122 
   1670000   285.18079     -76.993384      43.185945      135.35644     -0.002738654  
   1680000   326.94898     -77.057149      49.06032       165.94316     -0.002761597  
   1690000   305.35656     -71.997703      41.833972      150.96804     -0.0022971519 
   1700000   278.78364     -80.269311      45.180493      130.2804      -0.0027353836 
   1710000   321.84907     -84.416159      43.585334      150.08399     -0.00067494364
   1720000   259.16925     -78.00759       46.546483      122.27322     -0.0035180382 
   1730000   310.46436     -74.018346      42.693831      152.83711     -0.00048961742
   1740000   327.9231      -76.526643      55.881023      173.8722      -0.0023000088 
   1750000   300.65193     -78.31121       49.640971      149.67084     -0.0011586236 
   1760000   313.59887     -81.249724      51.733521      156.50475     -0.0025605137 
   1770000   282.31503     -76.798227      56.75029       147.41603     -0.0035332677 
   1780000   304.53129     -79.365936      51.284658      152.56096     -0.0020108957 
   1790000   282.74859     -85.615142      44.977879      127.08388     -0.0024464646 
   1800000   283.69254     -88.959417      33.936007      113.25767     -0.00090680767
   1810000   315.01117     -79.123893      43.315839      151.05065     -0.0022835663 
   1820000   301.26522     -81.181998      44.306182      141.82905     -0.0021849338 
   1830000   310.84399     -86.226549      43.832482      141.99274      8.2244698e-05
   1840000   302.40853     -84.411018      41.880431      136.85247     -0.0011810756 
   1850000   295.28584     -88.574424      49.608471      136.19206     -0.0026051774 
   1860000   300.4811      -90.769431      54.783942      142.25425     -0.0036928851 
   1870000   311.01611     -83.522259      42.716728      143.68338     -0.0016416569 
   1880000   310.72945     -92.287923      45.465638      137.49658     -0.0020602962 
   1890000   311.17778     -88.396638      47.081763      143.26993     -0.0020111195 
   1900000   314.69803     -88.508386      46.823566      144.98814     -0.0020749126 
   1910000   340.80201     -91.498663      49.672428      160.33111     -0.00046604502
   1920000   337.1101      -91.688519      51.988237      160.26709     -0.0020001404 
   1930000   291.55027     -88.004145      50.084877      135.02287     -0.0038917269 
   1940000   291.88629     -84.784192      52.160598      140.51787     -0.0036470119 
   1950000   302.39395     -81.659373      51.62032       149.33535     -0.0020849415 
   1960000   327.00799     -82.774022      57.282781      168.48375     -0.0033913842 
   1970000   278.13075     -84.377155      38.364067      118.96885     -0.0012171108 
   1980000   302.53637     -85.410576      47.701153      141.74946     -0.0011313724 
   1990000   278.21906     -87.088966      36.409891      114.35524     -0.00087242623
   2000000   300.8556      -87.193085      48.504357      139.77316     -0.0033910727 
   2010000   294.80895     -85.790415      38.333231      127.41794     -0.0018654563 
   2020000   287.76156     -89.154854      43.259275      124.79917     -0.001768382  
   2030000   290.29917     -88.337416      46.649722      130.51231     -0.0022871086 
   2040000   271.0617      -83.313318      48.573886      126.04927     -0.003606926  
   2050000   346.84288     -79.086715      52.558067      179.21203     -0.0016773504 
   2060000   307.97635     -81.332091      44.518024      145.87171     -0.0027069915 
   2070000   328.40052     -78.631392      55.201962      171.37158     -0.0021474195 
   2080000   312.66734     -82.702419      40.109791      142.87576     -0.0020008037 
   2090000   307.28777     -79.219026      57.725488      160.78379     -0.0015110853 
   2100000   314.29853     -77.565654      51.649919      160.52025     -0.0029475287 
   2110000   282.24043     -76.361109      49.171087      140.22969     -0.0036480211 
   2120000   326.77781     -73.666077      48.227037      168.39941     -0.0022713018 
   2130000   303.55541     -74.027847      52.904699      158.94021     -0.0033568918 
   2140000   297.284       -78.680066      45.035312      142.69853     -0.0034105661 
   2150000   316.00221     -73.75648       33.59672       147.28681      0.00077526396
   2160000   283.56926     -74.169258      44.337819      138.37652     -0.0014340269 
   2170000   284.36532     -70.928252      47.138348      144.89026     -0.0031274215 
   2180000   285.88836     -68.396799      47.258388      148.44519     -0.00091330542
   2190000   270.04322     -67.128147      43.835146      136.89156     -0.0041295668 
   2200000   278.90212     -63.831277      51.508588      153.1168      -0.0030562082 
   2210000   291.51434     -61.302023      47.286482      158.90528     -0.001692471  
   2220000   307.28789     -55.833401      42.57237       169.01637     -0.0022098557 
   2230000   280.17382     -61.113457      45.347482      150.42787     -0.0027804398 
   2240000   297.62397     -56.134721      44.592138      165.00236     -0.0013421532 
   2250000   291.17059     -64.629247      45.527401      153.61508     -0.0018588965 
   2260000   268.42208     -59.840351      47.370225      146.75281     -0.0022951479 
   2270000   334.12525     -60.0101        47.412157      185.59887      5.0115569e-05
   2280000   315.04718     -61.879792      48.734835      173.73511     -0.0026638432 
   2290000   313.22689     -58.568717      52.061531      179.29311     -0.0021961786 
   2300000   303.67354     -58.109151      45.086614      167.1109      -0.0010832457 
   2310000   315.15526     -58.057241      41.749612      170.63655     -9.8002951e-05
   2320000   284.1624      -52.740095      52.11009       167.92979     -0.0022619866 
   2330000   302.15056     -62.195118      48.679773      165.71468     -0.0010310796 
   2340000   289.57783     -61.408222      48.683951      159.04785     -0.0028377441 
   2350000   288.47601     -57.948511      46.405105      159.57514     -0.0021995425 
   2360000   281.55057     -60.088276      42.823197      149.74542      0.00015938099
   2370000   298.99029     -61.102324      47.073869      163.32697     -0.00021620775
   2380000   289.2504      -62.764259      46.069218      154.88286     -0.0021527131 
   2390000   306.99993     -63.278138      49.270117      168.09857     -0.0013831606 
   2400000   262.51981     -61.879272      48.846285      142.68883     -0.0037553979 
   2410000   345.16466     -59.828045      42.88513       187.80227     -5.6087802e-05
   2420000   300.93745     -58.691788      42.363063      162.18171     -0.0014699136 
   2430000   313.92412     -57.35001       53.617664      182.48154     -0.0019051315 
   2440000   325.74982     -59.930713      39.687607      172.98556      7.5166386e-05
   2450000   328.09714     -67.24252       54.579635      181.95817     -0.0026143465 
   2460000   308.63344     -65.247937      41.273579      159.10119     -0.00056264926
   2470000   299.55766     -64.003813      46.135682      159.82384     -0.0011819292 
   2480000   333.15543     -58.030637      47.450108      187.04101     -0.0010543317 
   2490000   300.79384     -60.384019      44.6702        162.71143     -0.0011037825 
   2500000   294.08775     -62.531786      37.434682      149.35022     -0.001041381  
   2510000   275.42778     -54.067234      49.286728      158.59807     -0.0043265011 
   2520000   314.44109     -63.571142      50.378452      173.32785     -0.0018285985 
   2530000   311.48591     -69.402621      40.281839      155.6468      -0.0012504899 
   2540000   302.59751     -65.0929        57.911217      172.31347     -0.0030662436 
   2550000   288.16556     -64.10903       37.602416      144.42778     -0.0017254564 
   2560000   277.59733     -61.239191      43.494481      146.92081     -0.0019858745 
   2570000   310.89666     -60.370612      43.564996      167.61244     -0.00094343344
   2580000   290.27627     -51.578029      50.501714      171.11011     -0.0020931973 
   2590000   303.48314     -57.478769      42.332126      164.87385     -0.00089512715
   2600000   299.85397     -64.078969      42.739459      156.52823     -0.001395577  
   2610000   300.82486     -67.378983      36.497674      147.56234     -0.0010950261 
   2620000   311.62879     -66.223457      57.727865      176.35675     -0.0027898458 
   2630000   287.71596     -66.320422      45.301763      149.64904     -0.00069984365
   2640000   323.06315     -67.259855      49.158778      173.53391     -0.0016249933 
   2650000   322.02561     -61.807287      41.989311      171.20156      0.0011633866 
   2660000   280.18857     -66.427564      39.691178      139.46621     -0.0009693839 
   2670000   299.35191     -68.683137      43.517276      152.40406     -0.0016835627 
   2680000   261.30772     -63.199462      47.407455      139.21082     -0.001264802  
   2690000   290.20412     -67.111678      43.971697      149.00365     -0.0019141146 
   2700000   304.90049     -65.064312      37.740065      153.53699     -0.00032024252
   2710000   276.72992     -60.543788      42.26798       145.87518     -0.0015719107 
   2720000   289.28544     -64.378762      37.267685      144.48761     -0.00093489441
   2730000   301.39875     -55.097009      49.266128      172.95319     -0.0030730268 
   2740000   270.83034     -54.214628      43.577396      150.01423      4.2934575e-05
   2750000   287.99035     -57.460713      40.487606      153.85736     -0.0018342172 
   2760000   314.78106     -63.350891      39.769317      163.14063     -0.00069614736
   2770000   289.29106     -65.201583      47.719004      154.11944     -0.0017355692 
   2780000   320.40005     -65.13802       50.507041      175.42431     -0.0022684109 
   2790000   304.76126     -62.367173      44.15391       162.56539     -0.00062625386
   2800000   302.77392     -57.096773      40.390499      162.89352      0.00077949196
   2810000   305.45702     -57.87165       35.086271      158.40598     -4.1386108e-05
   2820000   293.22575     -58.846474      43.224998      158.31452     -0.00019858569
   2830000   291.21117     -59.551766      37.248009      150.43723     -0.00040748215
   2840000   282.03579     -63.22449       40.721589      144.79542     -0.0024490048 
   2850000   270.87599     -60.50381       46.061374      146.23611     -0.0024844243 
   2860000   347.49123     -62.529109      39.300949      182.89711      0.00017293981
   2870000   274.92194     -62.005142      48.908204      149.98158     -0.0023835929 
   2880000   298.33144     -64.067846      41.128227      154.02498     -0.0018109986 
   2890000   298.49575     -60.757113      42.722124      159.02708     -0.00021304   
   2900000   295.87443     -57.577831      42.690826      160.62014     -0.001295273  
   2910000   273.46764     -53.249829      42.562883      151.52892     -0.0033402441 
   2920000   317.43078     -57.046305      48.728951      179.97662     -0.00062162836
   2930000   275.76173     -56.965543      39.970276      146.58141     -0.0011546369 
   2940000   281.78547     -56.195684      51.253469      162.20763     -0.0036189614 
   2950000   306.25149     -57.982836      45.225685      168.90548     -0.00076837728
   2960000   290.41038     -53.634675      50.803452      169.43476     -0.0026958866 
   2970000   316.49837     -59.293811      43.476324      171.92339     -0.00052205211
   2980000   279.27558     -60.286096      45.767948      151.14287     -0.0021843745 
   2990000   284.58813     -64.163691      48.403262      153.0519      -0.0024774731 
   3000000   297.47717     -62.804745      45.207702      158.86082     -0.0010045935 
   3010000   304.047       -61.168977      50.281874      169.46786     -0.00075955819
   3020000   301.65633     -49.883247      47.220115      176.27373     -0.0014069758 
   3030000   294.32267     -53.78731       50.544473      171.34384     -0.0018571532 
   3040000   314.7131      -59.246103      48.287903      175.72369     -0.0018378808 
   3050000   310.10133     -66.406801      49.565569      167.10505     -0.0027049936 
   3060000   283.06756     -56.001749      53.077259      164.98586     -0.0034920514 
   3070000   282.47222     -55.121252      48.556232      160.99219     -0.0016340534 
   3080000   308.08798     -58.834632      49.417651      173.33502     -0.0020036931 
   3090000   304.65472     -64.591008      45.542096      161.66654     -0.00044695132
   3100000   286.81426     -59.252095      49.41636       160.29709     -0.0037735747 
   3110000   308.67314     -62.11074       56.267792      177.25615     -0.0027052359 
   3120000   280.6095      -69.52358       45.112178      142.04088     -0.0022179523 
   3130000   322.52634     -65.410983      50.411821      176.3174      -0.0015367933 
   3140000   290.36705     -68.505443      42.035662      145.77049     -0.0019235517 
   3150000   330.62486     -52.876585      45.331811      188.57568     -0.0024034249 
   3160000   279.12694     -58.395218      44.200839      151.37847     -0.00055667034
   3170000   293.43535     -60.919852      46.083296      159.22378     -0.0022344632 
   3180000   322.45871     -53.477834      45.14293       182.94154     -0.00021188588
   3190000   315.93817     -58.487938      38.51231       167.43295     -0.0008504812 
   3200000   310.36709     -48.684732      50.517447      185.93664     -0.001049141  
   3210000   284.75021     -52.183095      48.164989      164.89037     -0.0022544995 
   3220000   297.77282     -50.117422      52.328081      178.8439      -0.0029271293 
   3230000   293.74313     -51.661207      44.375326      166.95702     -0.0022831904 
   3240000   318.61571     -59.772871      48.249198      177.47318     -0.00086533012
   3250000   280.46785     -65.274387      59.666423      160.76029     -0.0037052863 
   3260000   296.74835     -60.025787      50.605935      166.60569     -0.003120908  
   3270000   316.9963      -67.820733      46.931425      167.14694     -0.0019790411 
   3280000   269.33017     -68.549115      42.735829      133.94831     -0.0024041857 
   3290000   311.86367     -63.728642      42.221032      163.48406     -0.0012900283 
   3300000   280.55897     -65.910633      46.113233      146.62491     -0.0023197031 
   3310000   313.39564     -66.789783      45.338614      164.44923     -0.00071084864
   3320000   289.66716     -75.474181      45.608705      141.95964     -0.0021407445 
   3330000   308.44015     -69.775592      42.205148      155.39045     -0.0011171936 
   3340000   308.12898     -75.637246      37.24311       144.38218     -0.00082552735
   3350000   309.85887     -72.490169      44.423051      155.73534     -0.0015832962 
   3360000   311.2444      -68.054081      38.886585      155.45683     -0.00084944433
   3370000   284.35783     -65.12058       46.983437      150.53858     -0.0026477729 
   3380000   319.15652     -69.140594      43.47212       163.64917     -0.0010201372 
   3390000   290.31764     -67.413073      34.771595      139.56949     -0.0011816288 
   3400000   317.44384     -72.995007      43.01471       158.32142     -0.0011059207 
   3410000   315.212       -71.836256      53.392765      168.53434     -0.0025943412 
   3420000   301.7575      -67.587408      45.286902      156.69637     -0.0018427975 
   3430000   279.21792     -72.514723      40.421423      133.53352     -0.0011628556 
   3440000   309.42799     -67.980705      39.845978      155.41214     -0.00059530424
   3450000   312.22594     -70.915438      48.153706      162.44483     -0.00224346   
   3460000   304.87732     -65.893543      59.892327      174.84628     -0.0034787615 
   3470000   334.42535     -68.151377      41.25472       171.47818     -0.00051258249
   3480000   333.65459     -65.477191      39.501107      171.94154      0.00060675697
   3490000   278.99606     -67.023454      39.797857      138.26962     -0.001074842  
   3500000   291.46684     -69.596889      32.994712      136.29047      0.00027767661
   3510000   328.84106     -68.068357      44.282395      171.27637     -0.00085512246
   3520000   270.05664     -65.804701      44.47016       138.85798     -0.0030775744 
   3530000   309.61251     -64.416772      38.583919      157.82347     -0.00082600177
   3540000   300.87255     -64.676995      43.113868      156.90881     -0.00094518917
   3550000   302.37116     -62.806017      46.736848      163.29172     -0.0019922832 
   3560000   299.64387     -67.009718      48.866359      159.59975     -0.0024812448 
   3570000   295.60139     -61.674032      38.219461      151.89062     -6.8621577e-05
   3580000   308.08468     -61.986913      45.265626      166.02875     -0.0012636617 
   3590000   279.24713     -63.671296      45.115598      147.08845     -0.0022983007 
   3600000   295.07696     -51.885156      54.172644      177.32159     -0.002064105  
   3610000   303.19672     -53.013532      59.354413      186.19147     -0.0033367771 
   3620000   298.19662     -56.177056      52.541694      173.24927     -0.0023402066 
   3630000   303.81659     -58.851049      40.94181       162.30905     -0.00098475497
   3640000   292.19365     -61.132933      49.76956       161.9604      -0.0031138434 
   3650000   303.24072     -60.742753      46.155393      165.28933     -0.0013475955 
   3660000   299.0695      -57.992216      58.359103      177.76929     -0.0028275044 
   3670000   291.96959     -57.907966      40.208434      155.49134     -0.001893435  
   3680000   298.71815     -60.986685      37.598001      153.80531     -0.0007296229 
   3690000   326.42584     -64.908287      38.681662      167.40304      0.00098187454
   3700000   315.47603     -62.328923      33.540855      158.34638     -0.00021740537
   3710000   334.56831     -61.216391      39.682436      176.92568      0.00049721226
   3720000   338.66838     -67.132239      41.522702      175.28218     -0.00069966252
   3730000   317.08744     -63.293851      46.716311      171.51277     -0.00094170124
   3740000   320.0819      -62.881969      51.367569      178.35216     -0.0011791956 
   3750000   298.76629     -64.929568      48.652578      160.94556     -0.0012182314 
   3760000   277.00299     -65.55914       43.503293      142.25712     -0.00061363206
   3770000   317.38045     -63.662087      40.316         164.91803      0.00054231949
   3780000   288.25807     -67.98234       43.534963      146.54189     -0.0017079184 
   3790000   291.9738      -71.430512      43.695645      145.4585      -0.0014167503 
   3800000   287.22521     -71.902337      55.806094      154.28035     -0.0019182522 
   3810000   311.55747     -71.718522      35.881784      148.97329     -0.00098484263
   3820000   287.3136      -71.017827      40.817515      140.22871     -0.0013212837 
   3830000   297.55159     -73.348399      53.793363      156.94697      0.00013056389
   3840000   311.3521      -72.793348      50.654213      162.54908     -0.0018338864 
   3850000   298.9555      -64.475831      41.620008      154.47896     -0.00018154463
   3860000   319.4725      -61.75304       44.215351      171.96739     -0.00099207124
   3870000   310.72336     -55.868059      37.102238      165.54943      0.00040920647
   3880000   303.5777      -58.113971      40.959088      162.9217      -0.00050964471
   3890000   297.09135     -63.5813        48.203008      160.85071     -0.00095041468
   3900000   299.34026     -64.022139      38.136154      151.67703     -0.0016447341 
   3910000   312.57891     -66.961588      53.083606      171.53795     -0.001655519  
   3920000   298.47777     -70.856128      38.13936       144.33463     -0.0013475276 
   3930000   306.47145     -62.984535      45.168003      163.97657     -0.0025618166 
   3940000   300.43645     -67.40473       50.3681        161.17663     -0.0015926949 
   3950000   308.13367     -65.943144      45.268328      162.10428     -0.0020790491 
   3960000   288.90478     -62.297799      44.694892      153.76997     -0.00056038312
   3970000   304.8702      -65.669693      43.233202      158.40678     -0.001522753  
   3980000   333.50398     -64.490829      46.754281      180.09174     -0.0013537878 
   3990000   306.68979     -69.647739      47.93035       160.20523     -0.00093970984
   4000000   288.28197     -70.038975      38.967018      139.93149     -0.0017795851 
   4010000   289.17363     -63.841779      49.970191      157.66077     -0.0032626232 
   4020000   275.79818     -59.585529      54.125551      158.13832     -0.0030883066 
   4030000   270.1759      -65.674475      49.142736      143.73153     -0.00083706914
   4040000   274.27124     -58.33597       54.398497      158.75507     -0.0027545156 
   4050000   290.2602      -59.017538      42.225685      155.38504     -0.0019240254 
   4060000   299.93759     -60.655669      42.186545      159.44821     -0.00064436426
   4070000   271.42906     -55.443471      45.902493      151.46564     -0.0014195038 
   4080000   308.85267     -62.409331      47.204922      168.00119     -0.0013497078 
   4090000   290.49011     -57.936276      44.980749      159.35774     -0.0017603684 
   4100000   305.68112     -59.736388      41.004219      162.59212     -0.0017797008 
   4110000   329.02774     -54.323945      39.051737      179.90086     -3.6337021e-05
   4120000   288.3023      -57.111483      43.66664       157.57066      0.00060445342
   4130000   306.50479     -59.614393      45.335383      167.53387     -0.0018395872 
   4140000   291.76575     -55.532414      53.94482       171.48236     -0.0027110363 
   4150000   280.0729      -49.6702        51.371144      167.83493     -0.0029492585 
   4160000   316.91666     -49.068957      40.060983      178.98103     -0.00069082328
   4170000   326.06851     -45.655671      39.97273       187.73477      0.00086925031
   4180000   284.33097     -51.667165      40.591467      157.58409     -0.00019962399
   4190000   284.9153      -58.916025      44.824145      154.91452     -0.0026081321 
   4200000   295.61173     -61.507737      44.323485      158.16707     -0.0016392143 
   4210000   317.36386     -60.800647      52.731746      180.18537     -0.0011558787 
   4220000   280.34005     -59.562935      44.281077      151.01059     -0.0015468737 
   4230000   264.11173     -64.569503      40.418485      132.51509     -0.00087708505
   4240000   308.89275     -73.51927       28.73927       138.44937      0.00049594914
   4250000   303.54633     -63.711002      47.136333      163.48331     -0.0011411854 
   4260000   289.51751     -65.131623      46.369395      152.97412     -0.0015423199 
   4270000   303.73174     -64.98946       45.609022      160.78752     -0.0016671063 
   4280000   299.96841     -68.874572      43.286058      152.34711      0.00012329751
   4290000   277.90928     -72.84575       42.161013      134.16583     -0.0035657891 
   4300000   331.42081     -56.895145      43.129588      182.82704     -0.00080854551
   4310000   275.89338     -62.740851      52.634298      153.54822     -0.0038421492 
   4320000   280.4176      -59.347716      43.062967      150.0537      -0.00084484666
   4330000   274.40076     -60.542859      37.582863      139.80938     -0.00030500947
   4340000   307.64474     -66.227973      45.059919      161.32102     -0.0015910108 
   4350000   280.05957     -64.467248      32.712712      134.37154      0.00038647461
   4360000   316.02163     -67.900303      40.51585       160.07364      0.00051108189
   4370000   329.47411     -69.261759      46.509628      172.68572     -0.0010182445 
   4380000   305.76756     -75.371692      45.933785      151.93766     -0.0017578186 
   4390000   298.69348     -70.054859      40.091263      147.21576     -0.00092618734
   4400000   301.03349     -69.625519      44.162569      153.10445     -0.00068535149
   4410000   310.11146     -70.578429      46.132135      159.50599     -0.0014864749 
   4420000   296.00965     -69.620784      37.385223      143.3518       0.00084908221
   4430000   306.99841     -72.425535      30.007208      139.68736      0.00075541004
   4440000   305.81833     -58.636809      38.047457      160.81633     -0.00052778502
   4450000   298.86133     -65.171272      39.087384      151.19503      0.00097734174
   4460000   308.37618     -63.41353       32.496705      152.00613     -9.0879424e-05
   4470000   300.2006      -60.471946      41.120875      158.72228      0.00011304326
   4480000   319.69063     -63.078139      43.792549      170.34888     -0.0012470161 
   4490000   285.04356     -58.596637      31.818646      142.30449      0.00095076659
   4500000   318.73714     -69.478185      39.052362      158.64306      5.2786063e-05
   4510000   292.34039     -58.81842       39.087638      153.68004     -0.00013852843
   4520000   315.08009     -50.024214      49.348175      186.22355     -0.0003702398 
   4530000   292.56364     -52.782238      36.5135        157.27451     -0.00068914381
   4540000   288.30696     -60.271326      43.938284      154.68523     -0.002229882  
   4550000   291.58118     -61.671895      34.014148      145.30273      0.00050709573
   4560000   294.03739     -65.335448      52.621501      161.70351     -0.0035009536 
   4570000   309.3877      -70.12275       40.30213       153.70235     -0.0011838951 
   4580000   326.41308     -61.123548      46.983686      179.48224     -0.0013609209 
   4590000   302.77328     -62.169661      41.827146      159.25691     -0.0011418033 
   4600000   290.48398     -71.440102      54.026101      154.89564     -0.0034949671 
   4610000   295.21883     -66.593492      41.510902      150.03567     -0.00023412504
   4620000   321.4359      -68.442564      40.957497      163.18467     -0.00053808148
   4630000   318.80935     -61.447064      39.340469      167.00512      0.00019117285
   4640000   264.2186      -60.747514      46.033638      142.01563     -0.0011057054 
   4650000   285.19255     -63.387006      37.792264      143.57612      0.00015715547
   4660000   337.2187      -55.967671      41.363375      185.4275      -0.00018454177
   4670000   287.28498     -59.889753      40.040652      150.56295     -0.00011894458
   4680000   302.82325     -56.529772      37.74512       160.8444       0.0021493748 
   4690000   283.12131     -54.956741      36.37158       149.35708     -0.0018716018 
   4700000   313.49558     -52.187246      36.243089      170.01552     -0.00020647028
   4710000   288.1435      -56.531301      37.358562      151.74857      5.5971294e-06
   4720000   300.19874     -58.63226       33.370758      152.81075      0.00071281563
   4730000   324.44416     -53.002577      40.98757       180.43917      9.5880086e-05
   4740000   268.65917     -59.452184      43.494849      143.40624     -0.00034973246
   4750000   289.44398     -59.056469      43.669897      156.30616     -6.0970804e-05
   4760000   283.8278      -56.17637       38.236503      150.42145      0.00038395959
   4770000   314.45474     -53.068026      41.149012      174.60962      0.0005858263 
   4780000   279.94723     -50.807242      29.262868      144.51506      0.001165561  
   4790000   316.50499     -44.828167      39.853544      182.77019      0.0010894361 
   4800000   293.02091     -54.390343      38.213806      157.63796      0.00043514248
   4810000   320.85644     -54.491404      48.926451      184.76106     -0.00086643844
   4820000   315.29537     -52.104043      37.944428      172.86767      0.00027570791
   4830000   288.7709      -44.623335      38.934898      165.60503      0.00171351   
   4840000   328.57155     -50.253614      36.8818        181.53066      0.0011088957 
   4850000   276.16024     -47.565951      42.592047      158.83916     -0.0011027339 
   4860000   310.88558     -49.912437      43.715611      178.21466     -0.001923062  
   4870000   292.1636      -53.322638      32.792983      152.7763      -0.0013978321 
   4880000   312.87872     -54.240524      41.287097      172.64035     -0.00040733783
   4890000   291.0263      -55.034931      30.715026      148.31142      0.0011175092 
   4900000   299.90337     -56.591732      57.216596      178.52191     -0.0035406392 
   4910000   309.90265     -56.730302      50.054181      177.1523      -0.0012764872 
   4920000   307.78549     -47.450259      33.127466      168.24977      0.00038177335
   4930000   297.85618     -49.271425      38.787829      166.19909     -0.00064592215
   4940000   274.60151     -57.696376      34.365765      139.55784      0.00058869224
   4950000   306.9508      -56.856174      44.170063      169.39133     -0.0016984904 
   4960000   306.38522     -61.007025      46.146189      166.88112     -0.000446899  
   4970000   269.47449     -61.06163       43.87654       142.66211     -0.0017055182 
   4980000   303.19902     -63.868578      36.002779      151.98616      0.00073426057
   4990000   308.65854     -62.753097      47.786813      168.12416     -0.0015878434 
   5000000   311.40842     -63.181848      41.572769      163.11254     -0.00063906778
   5010000   316.59541     -57.618179      35.530812      165.71108      0.00095539402
   5020000   306.13926     -59.818957      46.436648      168.21374     -0.00022699477
   5030000   319.45214     -56.520767      39.353717      172.32596     -0.00054719908
   5040000   291.01547     -55.115607      42.02771       159.53701      0.00041279541
   5050000   291.90568     -58.70451       44.343426      158.79188     -0.0011452561 
   5060000   323.56001     -58.921536      33.768281      166.77646      0.0021396713 
   5070000   290.83483     -51.14736       39.220791      160.59118     -0.00036634958
   5080000   294.91288     -55.671857      37.566151      156.83107      0.00078743989
   5090000   312.34682     -61.695386      42.768936      166.35181      0.00092320233
   5100000   318.59243     -65.400342      43.119384      166.70208     -0.00026512532
   5110000   303.62752     -65.396142      32.100267      146.81026      0.0015563172 
   5120000   287.82624     -65.055741      42.631935      148.30931     -0.00091622622
   5130000   276.54609     -68.225433      46.024008      141.84052     -0.0022170578 
   5140000   325.67981     -62.265202      45.754992      176.67693     -0.0011449994 
   5150000   305.85804     -58.632136      37.616889      160.41399      0.00062938066
   5160000   342.5835      -59.48172       47.533119      191.26549      0.0002572704 
   5170000   298.46782     -70.224397      35.447929      142.26903     -0.00074567606
   5180000   295.03578     -64.663029      41.955224      152.30188      0.00060233838
   5190000   307.15462     -59.948855      35.870072      158.11956      0.00055374567
   5200000   302.82762     -58.320594      41.235253      162.54631     -0.00038161185
   5210000   308.32889     -51.749175      36.446399      167.59213      0.0012212279 
   5220000   298.60206     -52.532742      40.44342       165.03581      0.0002275466 
   5230000   302.06768     -55.537213      32.283895      155.92755      0.0014066159 
   5240000   297.64893     -45.516739      42.34426       173.38727      0.00041733814
   5250000   323.23202     -49.666181      46.101152      188.17013      0.00097349323
   5260000   288.71151     -52.942641      39.033394      157.34899     -0.00081931251
   5270000   314.43249     -55.93684       33.828607      164.40721      0.0016490901 
   5280000   314.28947     -62.179077      49.072898      173.32443      0.0011171773 
   5290000   284.58824     -58.750515      40.269407      150.33129      0.00085135204
   5300000   285.35609     -52.834962      35.305411      151.73832     -0.00050268561
   5310000   292.31353     -57.240554      34.763783      150.91812     -0.00030831159
   5320000   312.30452     -60.286165      40.375547      165.34255     -0.00096160864
   5330000   331.95216     -55.395501      47.431344      188.94362      0.00041705181
   5340000   306.73262     -51.34518       34.150519      164.75336      0.00091647335
   5350000   284.80954     -54.396316      37.309203      151.85655     -0.0012994657 
   5360000   272.16541     -60.073593      49.453267      150.82308     -0.0021389543 
   5370000   306.66241     -68.533079      34.059237      147.43253      0.0011025366 
   5380000   303.05661     -59.160479      36.634173      157.24118      0.00089133873
   5390000   338.23168     -55.958139      44.225905      188.90044     -0.00044921282
   5400000   309.22003     -50.204327      33.186659      166.40584      0.0007602373 
   5410000   304.70015     -49.961391      41.750301      172.53131     -3.9376984e-05
   5420000   295.22113     -47.726041      39.155686      166.54927     -0.00041739632
   5430000   309.04989     -47.897019      42.403605      177.82917     -0.0012814931 
   5440000   271.18156     -53.291668      36.510583      144.07872     -0.00065272847
   5450000   315.97781     -50.775866      36.873452      173.52968      0.0011872844 
   5460000   266.89173     -57.405336      41.782484      142.69231     -0.00025863739
   5470000   277.46785     -49.993512      41.532262      156.12746     -0.0013003045 
   5480000   294.08894     -59.219158      42.84183       158.0707      -0.00083680015
   5490000   300.85356     -57.653916      37.707229      158.51399      0.0012278363 
   5500000   325.50191     -49.614162      40.099297      183.56675      0.00030320622
   5510000   300.77423     -58.337176      45.148357      165.2248       0.00030512806
   5520000   288.411       -52.337778      32.486269      151.22847      0.0010297447 
   5530000   317.72688     -50.319853      41.95746       180.10722      0.00022568463
   5540000   305.66431     -50.714795      28.716856      159.31638      0.002040415  
   5550000   299.86464     -49.166585      44.753545      173.46103     -0.001852773  
   5560000   285.93901     -46.629045      42.405519      165.39012     -0.00017297237
   5570000   287.47921     -48.022254      40.878558      163.38357      3.8453987e-05
   5580000   328.28923     -56.615574      38.903227      177.02265     -0.00023729194
   5590000   323.55132     -61.499082      44.457549      174.88302      0.00043035997
   5600000   337.21254     -56.633645      36.725061      180.11956      0.00074838326
   5610000   284.64618     -62.083047      27.182629      133.94634      0.0015017758 
   5620000   295.69444     -62.602694      42.235109      155.0328      -0.0019881492 
   5630000   322.5312      -60.865364      31.806029      162.26011      0.0016923275 
   5640000   294.83865     -59.489115      43.911735      159.31537      2.2378992e-05
   5650000   283.20182     -58.280763      41.710108      151.41934     -0.00085599621
   5660000   299.11155     -62.400098      39.220679      154.24793      0.00022875839
   5670000   305.82        -63.532412      37.754957      155.62922      0.00068763841
   5680000   278.01052     -57.365272      49.32901       156.87435     -0.0026753688 
   5690000   280.2096      -56.019046      38.874621      149.07064      0.001485723  
   5700000   310.56348     -55.025232      34.981615      164.1768      -0.0001022409 
   5710000   300.43718     -58.453237      43.186273      162.94672     -0.00080006814
   5720000   286.05025     -56.819286      36.763292      149.62364      0.00017643454
   5730000   317.12366     -55.935901      38.495345      170.67123      0.00050084578
   5740000   276.71526     -55.60363       36.774623      145.31328      0.00040296768
   5750000   314.70071     -56.24011       36.097131      166.53157      0.0018861631 
   5760000   303.15574     -65.58308       36.911775      151.15498      0.00034521293
   5770000   277.30095     -56.730395      37.306217      145.06553      6.0028727e-05
   5780000   292.7885      -57.988579      34.110714      149.79877     -0.00028108686
   5790000   322.54937     -50.625522      40.16795       180.87265      0.00081376754
   5800000   313.9903      -50.881268      44.168008      179.53988     -0.0012228535 
   5810000   293.44799     -48.555475      44.785945      170.2983      -0.0016063353 
   5820000   345.52915     -56.182666      30.871573      179.6503       0.0020348681 
   5830000   302.83103     -62.514779      26.763912      143.8828       0.001225927  
   5840000   314.50295     -52.399918      40.600007      174.75732      0.0017150785 
   5850000   319.7224      -50.741448      40.551795      179.46366      0.0012301066 
   5860000   312.06561     -52.568846      34.018779      166.56139      0.00092032275
   5870000   325.39977     -50.041628      46.135546      189.11494      0.0002030453 
   5880000   284.40356     -50.693453      40.715145      158.72453     -0.0014704983 
   5890000   293.03616     -54.97          39.576784      158.43032     -0.0012932948 
   5900000   305.0485      -50.557225      37.586826      167.97863     -0.00064866964
   5910000   302.71179     -48.091833      36.878974      168.35009      0.0021534019 
   5920000   309.8628      -49.833051      40.570352      174.54209      0.00087143193
   5930000   298.86032     -48.256065      38.745966      167.76822      0.001847349  
   5940000   293.01015     -48.467502      31.441801      156.78241      0.00095484028
   5950000   310.23356     -46.877406      39.708719      176.85603      0.00059097361
   5960000   297.22062     -48.288025      36.564282      164.58194      0.00041916399
   5970000   271.83569     -50.727823      41.973803      152.4938      -0.0017318454 
   5980000   291.19142     -55.914377      35.654027      152.46893     -0.00016568853
   5990000   291.62472     -47.761667      37.241701      162.46633      0.0012881025 
   6000000   281.74791     -45.963934      40.939139      162.10277     -0.00041635306
   6010000   304.66466     -50.67485       44.490363      174.53686     -0.0015445512 
   6020000   300.26096     -44.930716      44.566562      177.745        0.00072246928
   6030000   299.20816     -40.245689      41.677039      178.91601     -0.00040016019
   6040000   304.72658     -37.574038      38.054216      181.23825      0.00088225156
   6050000   324.23834     -48.033673      38.023668      182.32208      0.00056808327
   6060000   307.69224     -44.581636      36.844337      174.77995     -7.8123345e-06
   6070000   298.03794     -38.844652      32.254567      170.20042      0.00018195085
   6080000   330.82689     -35.818444      41.914238      202.33609      0.0007311847 
   6090000   297.57945     -37.738328      42.090574      180.87078      0.0018617478 
   6100000   285.33709     -41.257731      36.897351      164.89622      0.00088338959
   6110000   315.89339     -50.906126      40.13339       176.60928      0.00033059826
   6120000   316.57116     -53.384517      36.394714      170.79426      0.0005465563 
   6130000   267.97364     -52.799166      40.123579      146.28134     -0.00067131884
   6140000   265.66408     -50.6413        33.719548      140.66519     -0.00019285965
   6150000   291.54587     -49.710293      38.463384      161.69262     -0.0001369241 
   6160000   322.89378     -48.033078      47.991933      191.49338      0.00082737568
   6170000   299.92022     -54.875994      52.390136      175.42118     -0.0016666497 
   6180000   306.68839     -49.142775      38.472975      171.25199      0.0015166154 
   6190000   307.00331     -52.611747      40.856956      170.3538       0.00086666712
   6200000   309.92323     -50.430619      39.047267      172.45728     -3.672361e-05 
   6210000   300.54001     -49.462517      37.40871       166.22088      0.0017010883 
   6220000   297.46928     -50.969102      34.098613      159.5827       0.00055922999
   6230000   288.03369     -59.837173      42.760011      153.77901     -0.00050302486
   6240000   338.6658      -49.10023       36.136904      187.92686      0.0021589057 
   6250000   321.7183      -48.722118      47.407253      189.52239      0.00011334588
   6260000   295.69014     -48.090846      42.619294      169.92628      0.001610304  
   6270000   330.9526      -49.628609      47.130208      193.81646      0.00064843301
   6280000   310.6264      -48.553397      37.490981      173.19532      0.0020236339 
   6290000   325.4674      -53.043307      37.2601        177.27794      0.00049489596
   6300000   292.25938     -57.695185      41.042818      156.7104       0.00052338767
   6310000   278.51804     -52.714948      38.220516      150.71723      0.00054371243
   6320000   298.88554     -44.1991        36.285838      169.38002      0.0011686009 
   6330000   285.46887     -43.58504       37.017887      162.76761     -8.4608382e-05
   6340000   287.27131     -41.644601      39.475641      168.23498     -4.8515347e-05
   6350000   307.13987     -49.638773      45.752152      178.30298     -0.00065810862
   6360000   330.84063     -46.769699      30.433806      179.91255      0.0027658203 
   6370000   318.7939      -48.146987      31.300668      172.25623      0.0031255163 
   6380000   303.14937     -46.629988      43.26223       176.45475      0.0016000238 
   6390000   318.10239     -50.329051      46.345929      184.70923      0.0011328845 
   6400000   320.4585      -51.558027      39.868911      178.40084     -0.00016721668
   6410000   335.10258     -52.173092      31.7393        178.34276      0.0027624611 
   6420000   310.79887     -55.64606       35.881516      164.5955       0.00089801315
   6430000   304.86698     -57.4135        30.62747       154.05533      0.0016813907 
   6440000   290.49916     -49.612586      29.280523      151.98658      0.00036475511
   6450000   297.6724      -49.550324      37.290452      164.3138       0.00025514442
   6460000   296.62577     -56.263963      47.423939      167.1128      -0.0021123908 
   6470000   299.82397     -51.328589      35.030443      161.5518       0.00081447649
   6480000   273.82134     -57.097244      29.425318      134.75375      0.00070820653
   6490000   307.89512     -61.916741      43.166028      163.88689      0.0009526246 
   6500000   277.78571     -56.535757      33.500505      141.74201      0.0011613216 
   6510000   286.09977     -56.883782      45.258083      158.08331     -0.00052148873
   6520000   291.91631     -52.360105      38.739028      159.53819     -0.00068191146
   6530000   281.56315     -51.822296      37.583524      152.77919      0.0019608673 
   6540000   305.79521     -55.039162      45.709131      172.06194     -0.00047667186
   6550000   271.82114     -48.525221      43.556127      156.27009      0.00044267712
   6560000   300.64544     -55.133181      33.794085      156.99813      0.00043787585
   6570000   309.99174     -54.661429      33.796649      163.01649      0.0027415219 
   6580000   309.28241     -54.736166      33.212098      161.93644      0.0011567275 
   6590000   301.84894     -53.117675      41.609165      167.54261      0.00032479372
   6600000   316.77582     -57.340059      35.230885      165.79629      0.0014632665 
   6610000   294.07324     -44.818486      34.151483      163.77171      0.00060440416
   6620000   282.46145     -55.658031      29.050662      140.94345      0.0016649022 
   6630000   256.14953     -54.47299       40.953895      138.42399     -0.00062091994
   6640000   326.44965     -58.594998      41.875408      176.92421      0.0010509541 
   6650000   293.81128     -52.918572      38.924897      160.28965     -0.00060809773
   6660000   306.42555     -56.41358       38.751285      164.10358     -0.00028466942
   6670000   302.64225     -58.679555      35.95005       156.79219      0.00048725546
   6680000   302.75044     -50.659882      33.0716        161.99759      0.00088491983
   6690000   299.04676     -51.861397      35.551605      161.07912      0.0011902033 
   6700000   324.22176     -53.357136      34.477375      173.44249      0.0030933769 
   6710000   302.07386     -47.381002      36.220756      168.02429      0.0010505081 
   6720000   311.98275     -47.82213       37.436453      174.67663      0.00097364749
   6730000   279.83938     -47.721422      30.477294      148.75133      0.00071474638
   6740000   310.70287     -45.793966      33.825859      172.33499      0.00053586309
   6750000   295.62334     -47.423799      38.644199      166.57861     -0.00012322377
   6760000   327.06183     -46.558749      41.687995      189.13618     -7.846279e-05 
   6770000   301.19107     -44.016432      35.044815      169.68927      0.00073654808
   6780000   315.90665     -43.641776      34.096851      177.84496      0.0019195763 
   6790000   290.70124     -40.465252      46.963812      178.93707     -0.00020626215
   6800000   297.09161     -43.318386      30.482043      163.39281      0.00093821127
   6810000   305.39085     -41.094933      34.495546      174.55273      0.0011384905 
   6820000   298.30957     -43.238451      27.957989      161.67117      0.0015765102 
   6830000   300.86834     -49.221779      36.966552      166.21422     -0.00014001455
   6840000   283.40463     -43.424906      36.767832      161.45323     -0.00022116296
   6850000   310.41426     -46.234378      42.925375      180.8229      -0.00072914189
   6860000   334.17777     -48.56816       36.95506       186.61487      0.00028417057
   6870000   311.08778     -47.757046      45.030161      181.80454      0.00048978438
   6880000   294.14786     -54.589678      48.535843      168.42915     -0.0016679987 
   6890000   302.48901     -51.00327       42.889264      171.31679      0.00082895618
   6900000   312.56045     -45.236662      43.515385      183.6837      -0.00045549278
   6910000   295.81791     -47.985348      31.90618       159.39446      0.00041971669
   6920000   317.27305     -51.976432      42.327122      178.5511       0.0002014885 
   6930000   280.79811     -49.004665      33.583618      151.14311     -0.00035840846
   6940000   308.01203     -47.753462      32.810477      167.76396      0.0023384004 
   6950000   294.67431     -49.324396      36.448956      161.91982      0.00070145554
   6960000   295.87219     -59.037654      35.044556      151.51272      0.00080338069
   6970000   321.30448     -52.721108      46.835549      184.70622     -0.00060433833
   6980000   314.70128     -54.734883      40.770141      172.71014     -0.00026746386
   6990000   287.14206     -52.732718      33.219052      150.8136       0.00041585656
   7000000   305.66139     -53.700381      31.734777      159.34699      0.0016809809 
   7010000   311.90291     -46.753261      35.527554      173.78924      0.002176997  
   7020000   307.81697     -54.237352      37.477759      165.83165      0.00051879674
   7030000   288.73591     -51.411276      43.666472      163.52791     -0.000315972  
   7040000   320.65363     -56.285379      38.465971      172.3863       0.00026353873
   7050000   288.57001     -56.123212      36.182493      151.23359      0.0014461403 
   7060000   278.90255     -45.129816      40.129131      160.43907     -0.00069193645
   7070000   292.96324     -42.96837       39.499503      170.31142     -0.00093433534
   7080000   308.39445     -47.413448      41.928368      177.44871      3.003541e-06 
   7090000   304.99024     -46.921161      37.498443      171.49176     -0.00020938373
   7100000   320.49045     -50.245438      37.18299       177.04646      0.00032149572
   7110000   301.6377      -48.518047      35.250815      165.65858      5.4479097e-05
   7120000   300.95289     -49.80549       34.752188      163.46629      0.0009030032 
   7130000   312.15727     -45.889383      39.117827      178.39427      0.00070346393
   7140000   271.01949     -43.751523      43.189734      160.20188     -0.00066618855
   7150000   315.48298     -40.880289      40.753506      187.01179      0.0029125152 
   7160000   321.88476     -47.065386      42.54423       186.41483      0.00015321647
   7170000   290.28183     -47.147847      36.137118      161.17899      0.0013152038 
   7180000   326.94919     -44.265235      42.881186      192.55606      0.00048022348
   7190000   283.02039     -44.122055      31.42832       155.18864      0.0020249382 
   7200000   304.93794     -37.399696      42.604053      186.08781      0.00050611541
   7210000   289.04517     -37.29045       32.559656      166.72537      0.0027933437 
   7220000   311.08155     -36.903015      37.406177      185.03089      0.0011198932 
   7230000   267.43173     -44.280922      50.639546      164.9941      -0.0020861551 
   7240000   310.94583     -44.722399      46.811497      186.53632     -0.0010184527 
   7250000   267.09859     -48.921088      35.460166      144.97694      0.00048230688
   7260000   303.68031     -51.29604       40.221332      169.06274      0.0011073024 
   7270000   290.97509     -43.042408      42.278956      171.8375      -0.00086993883
   7280000   340.77431     -48.092429      34.228864      188.27735      0.0012097843 
   7290000   291.7382      -49.473194      48.266144      171.84656     -0.00045521124
   7300000   325.17164     -61.136322      38.72094       170.47032      0.00063281933
   7310000   297.89364     -47.224117      34.535079      164.01587      0.00010276227
   7320000   300.65724     -39.925768      41.476707      179.89516     -0.00074794348
   7330000   298.08772     -41.765353      36.355129      171.40981      0.00071976784
   7340000   266.78848     -36.15525       41.193261      163.29192     -0.00036521811
   7350000   301.59138     -38.919211      37.034521      177.01365      0.00021448929
   7360000   306.84997     -41.735903      40.508159      180.78989      0.00032093352
   7370000   292.18804     -43.165637      42.242483      172.3973       0.00095666614
   7380000   303.5746      -49.294599      32.291971      163.07212      0.0011625979 
   7390000   291.58562     -52.521264      36.859145      157.30099      0.0019556353 
   7400000   264.76472     -50.859604      40.711338      146.90519     -0.00039175033
   7410000   308.98561     -51.047313      40.807748      173.04489      0.00035873988
   7420000   308.81463     -47.148919      32.669572      168.70369      0.0014671809 
   7430000   312.32997     -58.488404      40.676577      167.45644      0.00079812325
   7440000   320.81364     -56.048794      44.835494      179.08732      0.0012750117 
   7450000   341.46805     -60.523684      40.095087      182.12383      0.0022528663 
   7460000   309.59325     -58.130624      43.2474        168.76167      2.5441982e-05
   7470000   288.70793     -51.391746      39.454945      159.31931      0.0012395556 
   7480000   328.45601     -50.374214      43.61816       188.07787      0.00076983675
   7490000   304.21606     -43.616633      45.424989      182.2636       0.0005296994 
   7500000   316.46222     -39.846945      44.108324      191.98082      0.00074495821
   7510000   317.80468     -42.740371      30.724573      176.49997      0.0024435416 
   7520000   316.60199     -41.884628      52.50052       198.41824     -0.0012676586 
   7530000   273.08462     -43.561747      35.006086      153.433        0.0003905523 
   7540000   324.46653     -47.347451      39.375452      184.49545      0.00074298054
   7550000   258.70249     -48.449087      38.910455      143.91882     -0.00068652823
   7560000   304.03979     -51.157335      35.889296      165.08265      0.0020724878 
   7570000   293.57405     -45.641582      34.356429      162.85746      0.0014900379 
   7580000   326.53984     -51.579192      43.73957       185.85767     -0.000729528  
   7590000   300.89222     -55.080473      37.041638      160.44477      0.0004114757 
   7600000   298.7317      -56.895954      45.435794      165.74187     -0.00019744378
   7610000   315.97138     -50.598351      27.773523      164.60346      0.0030471774 
   7620000   307.17203     -51.25915       39.280264      170.22979     -0.00077749594
   7630000   291.09887     -45.347441      44.410354      171.73729     -0.00077201689
   7640000   295.25389     -51.321922      39.309562      163.12669      0.00080619685
   7650000   260.17615     -45.518962      48.255183      157.06782     -0.0025723455 
   7660000   316.49405     -51.804313      44.445651      180.37966     -0.0011124007 
   7670000   323.61098     -49.204813      35.877847      178.63299      0.0016395847 
   7680000   315.96739     -45.906843      47.470108      188.98918      0.00046256281
   7690000   294.57942     -42.232473      40.387662      172.89416     -0.00081655967
   7700000   305.88277     -54.333034      37.519565      164.63044      0.00017375754
   7710000   309.93406     -52.734111      46.511335      177.62428      5.2682447e-06
   7720000   300.5502      -47.217726      46.938148      178.00115     -0.00042043105
   7730000   256.27577     -60.481674      42.012696      133.54899     -0.0011032949 
   7740000   305.13574     -62.496887      39.391357      157.89525      0.0012860386 
   7750000   299.33178     -58.603866      41.843221      160.79734     -0.00035240535
   7760000   289.96021     -52.615224      34.679361      154.06308      0.0010965978 
   7770000   306.7646      -57.58345       33.461918      157.84546      0.0020783887 
   7780000   296.54793     -65.741676      37.632906      147.79789      0.0025015443 
   7790000   304.42125     -65.297059      41.016613      156.29652      0.0018477831 
   7800000   337.35341     -61.385293      29.877665      168.60407      0.0034781056 
   7810000   320.52351     -65.000088      31.46934       156.59777      0.0021874663 
   7820000   304.30853     -63.91074       40.285265      156.88462      0.0010466482 
   7830000   283.6497      -60.676015      37.448515      145.02817     -1.0512791e-05
   7840000   312.50504     -52.557268      41.892349      174.7072       0.0011314491 
   7850000   306.95887     -59.036325      37.33718       160.38309      0.00051452668
   7860000   304.06749     -53.640131      37.503735      164.23072      0.00037373435
   7870000   284.52503     -52.367918      42.663002      159.06998      0.00039578563
   7880000   289.54349     -50.358242      42.932125      164.32564     -0.00019140902
   7890000   304.7361      -55.45512       28.46423       153.77284      0.0018211921 
   7900000   324.54334     -47.768373      39.339008      184.08364      0.00057906716
   7910000   303.40344     -50.779163      42.329246      171.5233      -0.00099271789
   7920000   295.38149     -52.610139      48.45215       171.05676     -0.0014091545 
   7930000   289.71571     -50.239711      46.211454      167.82566     -0.0018839942 
   7940000   308.98824     -49.169216      35.956144      170.07294      0.00094177833
   7950000   329.04208     -53.929141      38.71936       179.97179      0.00031357162
   7960000   300.52208     -52.718693      45.321256      170.86661     -0.00099161334
   7970000   295.85289     -49.434934      46.374846      172.43429     -0.0023518688 
   7980000   280.8264      -56.060257      43.306087      153.82677     -0.00077792178
   7990000   291.66704     -56.911652      33.705428      149.80518      0.00069042542
   8000000   295.90666     -58.289009      28.20691       145.44417      0.0014691774 
   8010000   312.27539     -55.408703      37.509661      167.33685      0.00074389049
   8020000   311.64302     -44.593241      38.973233      179.24077      0.00056469541
   8030000   298.93808     -51.242317      33.334453      159.41659      0.0008857345 
   8040000   270.00056     -55.802394      41.032812      145.38968     -0.0014741513 
   8050000   324.56056     -58.302586      33.859472      168.08011      0.0027494822 
   8060000   300.52633     -56.028016      36.479692      158.71825      0.0014636591 
   8070000   291.41647     -59.440617      41.437522      154.85967      0.00027254245
   8080000   307.50002     -52.222583      47.636034      177.81668     -0.00078817491
   8090000   321.07965     -57.375198      39.036112      172.11933      0.00045119763
   8100000   311.92388     -55.385075      45.189158      174.83146      0.00056115003
   8110000   338.49508     -64.254065      38.679075      175.21393      0.0016450476 
   8120000   317.66531     -60.912107      38.382077      165.90306      0.0010990654 
   8130000   336.19857     -58.080182      35.716293      177.06278      0.00082059232
   8140000   306.91714     -58.983166      31.748088      154.8224       0.0011478223 
   8150000   287.52804     -51.493717      36.90678       155.96929     -0.00076554156
   8160000   297.72312     -50.888511      48.740493      174.45574     -0.0019981686 
   8170000   301.48979     -48.466087      41.982686      172.35467     -0.00058376426
   8180000   311.57942     -44.497111      43.432195      183.75814     -0.00021863215
   8190000   314.52494     -43.742462      29.008674      171.83649      0.0028181193 
   8200000   296.47303     -47.274077      43.765204      172.35335     -0.0012452912 
   8210000   307.97398     -50.177199      41.308295      173.81547     -0.00030373177
   8220000   304.01827     -46.641196      36.24155       169.93828     -0.00054373172
   8230000   279.83262     -41.562806      35.013556      159.4422       0.00045257723
   8240000   310.65155     -42.45669       39.203789      181.01976     -0.001029817  
   8250000   318.32328     -42.170828      50.474316      197.12687     -0.0015665066 
   8260000   298.61994     -44.563017      41.680433      174.25315      0.00072462937
   8270000   303.54845     -41.492067      46.308883      184.87605     -0.00079198374
   8280000   313.42754     -49.695681      35.669358      171.893        0.0010949514 
   8290000   284.67927     -37.120534      36.104868      167.85072      0.00021260607
   8300000   289.59734     -37.327551      46.704589      181.16074      6.979444e-05 
   8310000   303.25717     -45.558821      34.38579       168.71342      0.00098693202
   8320000   321.76566     -43.202547      36.058987      183.72178      0.002004019  
   8330000   319.9163      -35.761247      33.105006      187.11209      0.0012827784 
   8340000   288.20295     -43.687486      34.537229      161.80632     -0.00057304758
   8350000   292.00476     -49.287706      34.054632      157.97866      0.0012842828 
   8360000   319.28545     -46.053888      43.977408      187.31765      0.00054494473
   8370000   299.50957     -48.743482      36.531828      165.45179      0.0025080855 
   8380000   294.9892      -46.348564      49.562972      178.19645     -0.001916243  
   8390000   299.86216     -43.743035      39.651306      173.78087     -0.00080480856
   8400000   267.7185      -43.133332      46.165011      161.83726     -0.00049612163
   8410000   315.56597     -39.367086      53.09669       200.9174      -0.0017188039 
   8420000   300.33417     -44.591556      42.692368      176.2534       0.0011613935 
   8430000   294.24977     -37.429675      35.852585      172.96634      0.0008258701 
   8440000   277.76962     -41.640352      31.725294      154.85266      0.001179505  
   8450000   296.21156     -45.105318      34.753208      165.35502      0.00091236327
   8460000   271.1389      -36.451438      36.27798       160.66104      4.1563248e-05
   8470000   322.55611     -37.254707      39.089197      193.16871      0.0013015091 
   8480000   297.27545     -38.906733      38.134136      175.56561      0.00035773016
   8490000   303.64613     -35.887954      36.010828      180.24005      0.0029378728 
   8500000   290.4335      -37.342554      37.322137      172.25928     -0.0008395287 
   8510000   275.07978     -45.51717       34.824198      152.47918      0.00061374377
   8520000   313.27278     -38.026735      40.449116      188.2499       0.00028007001
   8530000   331.83369     -36.986118      42.542956      202.39434      0.0006402693 
   8540000   300.78331     -41.612085      52.043377      188.8503      -0.0022545414 
   8550000   312.03948     -42.352233      41.67777       184.42149     -0.00090410188
   8560000   336.13736     -44.172104      39.31994       194.5382       0.0016962125 
   8570000   305.77203     -47.506728      47.931563      181.80306     -0.0012355964 
   8580000   289.94511     -46.013667      44.296148      170.27247     -0.00082547776
   8590000   295.38872     -40.859157      35.472259      169.83214      0.00052838131
   8600000   324.99467     -38.538054      40.867343      195.11002      0.00047294062
   8610000   296.31177     -36.957384      35.052097      173.86128      0.00011269761
   8620000   297.04777     -45.319455      35.977489      166.86119     -0.00098519547
   8630000   310.93525     -46.148362      31.082621      169.37521      0.001881876  
   8640000   278.47555     -44.40943       40.91246       161.68949      0.00069578989
   8650000   306.49898     -41.334316      45.558607      186.03372     -0.00016938716
   8660000   304.60047     -47.557709      41.588097      174.71366     -0.00027048968
   8670000   286.19568     -43.730123      48.786208      174.82198     -0.0015149528 
   8680000   286.0391      -39.203778      39.989629      170.45887     -0.00071896849
   8690000   308.34523     -39.8174        40.947047      184.03424      0.0026662042 
   8700000   319.14624     -41.366787      41.113717      189.05848     -0.0002016286 
   8710000   302.29881     -41.807486      39.003846      176.51433      0.0023390196 
   8720000   291.85948     -40.047725      33.827317      166.90515      0.00077262042
   8730000   298.05835     -45.667497      35.689684      166.8248       0.0012836867 
   8740000   318.12229     -39.735594      33.429668      182.39823      0.0017085566 
   8750000   276.32103     -44.723373      41.105428      160.29049     -0.0004278789 
   8760000   325.09715     -40.166969      32.127025      184.80158      0.0022603799 
   8770000   320.06283     -45.644053      31.141205      175.3524       0.0027758604 
   8780000   304.82172     -50.588881      41.493691      171.71932     -6.6925283e-06
   8790000   277.71283     -44.579666      33.971499      154.12586     -0.00052753208
   8800000   313.20701     -43.673353      35.651618      177.76678      0.0016691297 
   8810000   289.35854     -44.596895      41.05911       168.10426     -0.000328659  
   8820000   301.46108     -44.968704      41.230458      175.0828      -6.7276695e-05
   8830000   291.7904      -41.25039       49.115005      180.94919     -0.002025606  
   8840000   275.45377     -38.64855       51.2701        176.01555     -0.0022806933 
   8850000   326.58873     -39.475618      33.698097      187.94877      0.00096779112
   8860000   316.76812     -34.755438      37.859221      191.00467      0.00078007543
   8870000   330.22866     -34.522648      37.366181      198.72897      0.00084224033
   8880000   273.03392     -37.152906      40.610803      165.41648      2.6881774e-05
   8890000   307.52968     -40.628744      37.397033      179.18912      7.7290284e-05
   8900000   299.47265     -40.925206      37.034514      173.75085      0.001634069  
   8910000   332.37674     -35.867492      40.809896      202.10204      0.0010077649 
   8920000   310.13039     -39.97998       37.907106      181.89064     -9.3272911e-05
[...]
  47920000   283.16172     -0.69233497     36.655852      203.92972      0.0033334079 
  47930000   268.80622     -4.5794821      44.284416      199.15573      0.00077691451
  47940000   275.68896      0.067149004    34.17729       197.77795      0.0026317021 
  47950000   306.28023     -3.6726198      34.512012      212.51907      0.0026469918 
  47960000   285.99722     -6.9381735      46.042468      208.75247      0.0016630338 
  47970000   308.92849     -4.4350217      31.279952      210.0955       0.0018838431 
  47980000   291.36516     -16.787672      31.558705      187.60336      0.002759185  
  47990000   309.8477      -7.2110032      27.205105      203.78993      0.0037535853 
  48000000   317.4677      -17.145128      35.626791      206.79753      0.0026105239 
  48010000   279.49614     -14.943779      39.069526      189.91761      0.00033993057
  48020000   328.04033     -16.012588      35.3804        213.95517      0.0033691078 
  48030000   285.23074     -21.555328      33.777148      181.41533      0.0023935538 
  48040000   332.40185     -12.677596      26.417082      210.91401      0.0049134769 
  48050000   293.76073     -19.286805      34.847296      189.81383      0.0016202639 
  48060000   319.03932     -15.705446      51.349013      224.89169      0.0012123155 
  48070000   266.79601     -19.010803      45.291128      184.5387       0.00081140714
  48080000   288.21399     -26.595025      32.996104      177.3642       0.0026998933 
  48090000   350.12692     -24.442806      40.1982        223.4441       0.0025346563 
  48100000   317.67029     -28.313095      41.474096      201.59704      0.00096589319
  48110000   302.74303     -28.579738      35.524667      186.5264       0.0022456023 
  48120000   313.39576     -22.895868      36.318747      199.32335      0.0023968507 
  48130000   304.54949     -13.912573      40.013977      206.75444      0.0029368069 
  48140000   288.95976     -14.711592      29.266235      185.96014      0.0023635081 
  48150000   320.26461     -25.515257      29.470044      193.92973      0.0028551661 
  48160000   312.37363     -22.058268      39.071544      202.30744      0.0015716372 
  48170000   285.49046     -18.051178      37.242709      188.5391       0.0024264481 
  48180000   321.31047     -17.250775      30.303912      203.64847      0.003590139  
  48190000   289.1233      -21.108958      37.399539      187.79309      0.001137356  
  48200000   279.24342     -22.182899      36.796335      180.25538      0.00028817348
  48210000   322.01581     -25.144845      31.999415      197.86829      0.0025210023 
  48220000   283.48384     -23.045328      26.055193      171.16715      0.0030627748 
  48230000   307.84596     -21.327635      34.340777      195.62158      0.0030915941 
  48240000   306.37473     -18.264809      31.447948      194.91887      0.0027026621 
  48250000   304.93389     -26.606183      39.109539      193.38441      0.0021811458 
  48260000   295.99366     -22.605203      41.136902      194.10958      0.0023965915 
  48270000   321.02654     -23.111378      42.949268      210.2648      -7.3957526e-05
  48280000   307.97717     -23.24406       35.207459      194.64967      0.0033099569 
  48290000   285.4857      -26.344473      36.944524      179.9448       0.0011539423 
  48300000   292.12326     -27.629254      34.767733      180.42051      0.0016787858 
  48310000   275.21274     -27.008531      30.367722      166.61021      0.0011742631 
  48320000   269.0643      -22.466184      32.024712      169.16241      0.0017342005 
  48330000   296.24744     -17.143123      41.536739      200.12203     -0.00028427361
  48340000   296.2046      -19.322928      34.469093      190.84917      0.0022566718 
  48350000   278.65132     -23.466446      29.08323       170.90751      0.00093557878
  48360000   286.9582      -18.61559       40.350794      191.95341      0.0024965795 
  48370000   310.14582     -23.032339      33.106496      194.04683      0.0019611094 
  48380000   322.17875     -25.050091      37.884763      203.94505      0.0019643457 
  48390000   267.49531     -25.395984      32.734799      166.012        0.0010304961 
  48400000   305.24748     -30.258084      28.774804      179.58379      0.0021795941 
  48410000   264.94628     -23.177139      34.294996      168.27901      0.00029324228
  48420000   323.5763      -19.194265      28.426215      201.17133      0.0024910219 
  48430000   297.45926     -18.508223      34.323735      192.26275      0.0016801797 
  48440000   294.99422     -20.176362      46.896673      201.70534     -0.00042467213
  48450000   285.24222     -18.69199       35.429978      185.93831      0.0018300277 
  48460000   300.30513     -19.896387      31.695538      189.93451      0.0035647668 
  48470000   295.38345     -18.355237      36.741975      193.60265      0.0017616129 
  48480000   296.16889     -14.831496      33.105343      193.95566      0.0010223644 
  48490000   275.81136     -11.825435      34.167876      185.94856      0.0031298391 
  48500000   300.83626     -12.261218      39.908022      206.09722      0.0017782621 
  48510000   298.33775     -9.0907375      33.24194       201.11955      0.0020467133 
  48520000   296.55528     -9.7890129      38.386146      204.50815      0.0011825641 
  48530000   298.88651     -21.358377      34.115349      190.05083      0.0033478091 
  48540000   296.61487     -20.653502      43.014491      198.30735      0.00080799946
  48550000   266.87498     -16.724351      36.598897      178.17977      0.00086234238
  48560000   284.6772      -18.723311      43.035305      193.17715      0.0013558865 
  48570000   330.01619     -13.617702      44.349386      226.49108      0.0011107438 
  48580000   289.6168      -6.5150156      36.502624      201.78285      0.0012984897 
  48590000   296.12516     -13.09008       41.522724      204.08852      0.0012058557 
  48600000   307.6798      -10.589004      35.661875      207.58274      0.00079350949
  48610000   279.88328     -16.276643      39.699936      189.44479      0.0013929082 
  48620000   272.28297     -17.839279      33.286408      176.96027      0.00085965957
  48630000   303.0484      -17.508705      37.346777      199.60068      0.0016795768 
  48640000   287.67719     -7.603474       36.874928      199.91615      0.0028045454 
  48650000   314.70151     -14.319076      39.12996       211.4859       0.0013375381 
  48660000   313.87772     -12.353263      32.369191      206.20229      0.0038421458 
  48670000   295.79013     -14.140033      33.978405      195.29552      0.002843918  
  48680000   303.55276     -16.036839      39.404532      203.42948      0.0016065094 
  48690000   277.15561     -15.04016       40.176787      189.54012      0.0013617168 
  48700000   316.9706      -10.209783      37.701273      215.51249      0.0021210894 
  48710000   288.02746     -13.773508      29.527379      186.60635      0.002410996  
  48720000   263.09926     -10.369718      35.443499      181.13931      0.0022025916 
  48730000   274.67892     -15.820927      33.718108      180.83155      0.0029628835 
  48740000   319.63753     -16.898949      27.480447      200.18447      0.0036967764 
  48750000   317.8877      -15.564717      40.262849      213.26314      0.0017085495 
  48760000   297.56581     -17.276412      29.771351      189.00538      0.00192901   
  48770000   300.89925     -15.430579      35.699728      198.75693      0.00170388   
  48780000   315.30289     -9.8759243      31.353406      208.50923      0.0040483193 
  48790000   297.09157     -13.858636      34.850301      197.2208       0.0019380936 
  48800000   320.90415     -9.7784876      30.797051      211.37287      0.0027262819 
  48810000   286.11399     -8.1791002      33.209168      194.74751      0.0029548419 
  48820000   290.41511     -3.5024501      38.322509      207.08884      0.0022971572 
  48830000   309.9451      -5.7259748      35.732225      213.85985      0.0016949052 
  48840000   303.02966     -9.5133237      29.727364      199.96554      0.0033362411 
  48850000   276.13466     -1.4220562      28.208967      190.5848       0.003198468  
  48860000   316.60828     -3.6018936      32.934672      217.13886      0.0026565801 
  48870000   302.64596     -10.972732      43.145317      211.69648     -0.00012488641
  48880000   309.65964     -12.328941      29.021219      200.37656      0.0035059825 
  48890000   287.92966     -10.925501      32.416292      192.28525      0.002783056  
  48900000   311.36875     -3.7538501      35.417327      216.36157      0.0013200239 
  48910000   279.14758     -9.2638734      36.781338      193.10256      0.0023244304 
  48920000   339.89204     -1.8640215      38.008989      237.76254      0.0046902136 
  48930000   276.05274     -0.9109451      40.781158      203.61951      0.0011096283 
  48940000   304.90469     -2.094686       45.284809      224.05385      0.0011694766 
  48950000   310.18354     -7.7513675      32.20776       208.45143      0.0022360605 
  48960000   330.95585     -4.7015544      27.717062      219.3323       0.0028804356 
  48970000   304.11506     -2.4567671      36.90262       214.84119      0.0024458443 
  48980000   276.47174      1.5859204      31.583363      197.16712      0.001320833  
  48990000   316.55227     -3.508354       40.194036      224.45853      0.0024564646 
  49000000   302.94683     -12.041926      30.359081      198.01952      0.0026580499 
  49010000   302.22421     -15.434741      33.411461      197.25044      0.0017851522 
  49020000   312.42905     -8.1408707      41.972908      219.15908      0.0011163486 
  49030000   270.91492     -14.063183      35.890234      182.52869      0.0011421029 
  49040000   296.12823     -15.229113      33.666754      194.09534      0.00092551832
  49050000   329.57752     -19.311038      32.029329      208.21748      0.0034087543 
  49060000   294.25984     -13.470201      36.365267      197.44447      0.0012924829 
  49070000   295.84015     -17.307518      36.809784      194.98908      0.0015840426 
  49080000   307.16285     -10.727445      37.422417      208.8982       0.0036746377 
  49090000   288.92726     -20.727527      28.334581      178.99327      0.0027217988 
  49100000   309.44941     -14.645301      34.989945      203.90422      0.0031473725 
  49110000   343.47273     -17.662796      31.515484      217.59425      0.0049919426 
  49120000   331.13396     -10.644628      35.483842      221.26166      0.0038398881 
  49130000   267.3313      -9.3402601      35.753846      184.98949      0.0016291891 
  49140000   303.17472     -9.6268124      28.746524      198.95726      0.0037071153 
  49150000   319.10373     -9.8103725      33.04227       212.51823      0.0019880037 
  49160000   306.23852     -8.9239679      34.584529      207.31549      0.0016173159 
  49170000   267.57712     -8.5367523      40.391197      190.57616      0.00036583585
  49180000   284.30169     -5.9641883      36.255084      198.93331      0.0012873625 
  49190000   294.81599     -2.9284382      42.062659      214.01352      0.0021658494 
  49200000   287.17148      3.9814242      35.259729      209.58588      0.0017794868 
  49210000   282.18204     -2.0621296      34.901855      200.22481      0.0025915553 
  49220000   299.63151     -4.7302264      31.059432      204.06498      0.0028340242 
  49230000   298.01266     -7.9187242      38.429413      207.2862       0.0022280365 
  49240000   312.18412     -8.7926774      29.200455      205.58953      0.0042348874 
  49250000   305.28571     -7.8662321      36.526572      209.75008      0.0014385803 
  49260000   306.7095      -6.372766       35.068873      210.63042      0.0028179236 
  49270000   300.74883     -4.652515       34.026211      207.77225      0.0033926081 
  49280000   321.08539     -6.5665239      34.793131      218.68842      0.0033145522 
  49290000   284.06314     -11.615055      31.834251      188.72011      0.001663005  
  49300000   295.83848     -8.1782933      39.363181      206.67071      0.0013576938 
  49310000   285.09802     -15.790949      29.664694      182.98853      0.0035087012 
  49320000   311.01259     -11.293843      35.728653      208.92163      0.001515608  
  49330000   278.16765     -10.204265      40.058455      194.85801      0.0023318303 
  49340000   302.67577     -9.730525       40.644331      210.45538      0.0022529289 
  49350000   304.76216     -8.6540339      30.192359      202.31751      0.0025991807 
  49360000   311.97326     -5.9427069      29.517765      208.63173      0.0041105755 
  49370000   303.81458     -15.908287      31.734613      196.04342      0.0040691889 
  49380000   305.41411     -9.6403012      31.839892      203.3655       0.0024587016 
  49390000   290.46194     -7.5444545      27.90448       192.65659      0.0042037825 
  49400000   282.50798     -3.4238903      39.608534      203.76306      0.0015938003 
  49410000   323.5943      -7.4858407      34.276499      218.74071      0.0035313339 
  49420000   284.26676      4.9031753      36.446841      209.97171      0.0017961835 
  49430000   303.56184     -1.2191117      32.248307      211.09637      0.0017733889 
  49440000   299.32053     -2.0118009      38.388488      213.928        0.0027976023 
  49450000   277.41915     -4.1037596      29.858828      190.31489      0.0020425333 
  49460000   287.56745     -2.8537664      34.548262      202.2741       0.0030732285 
  49470000   283.03132     -6.3623711      40.333386      201.85987      0.001647858  
  49480000   298.3429      -4.8917473      36.798807      208.87846      0.0036577704 
  49490000   311.03265     -3.9541604      32.952292      213.49685      0.0038970595 
  49500000   304.66794     -1.9331415      55.588444      234.37859     -0.00078651943
  49510000   315.54505     -7.338521       33.71245       213.54932      0.0035315154 
  49520000   319.72703     -6.5400174      37.402047      220.51809      0.0038868109 
  49530000   283.04353     -4.1204092      35.184494      198.96019      0.0010277157 
  49540000   269.63855     -5.5404405      31.419223      185.8233       0.0043298972 
  49550000   303.86317     -13.20627       30.929853      197.9695       0.0030797028 
  49560000   316.75209     -4.7562278      34.011847      217.147        0.0039969077 
  49570000   275.20728     -2.1762563      38.169789      199.24131      0.0011256347 
  49580000   288.5659      -5.4803702      40.490405      206.1819       0.0010349342 
  49590000   309.60545     -1.8891771      34.611383      216.37434      0.0026853366 
  49600000   301.46912     -4.1430693      36.351027      211.03377      0.0030941386 
  49610000   313.99977     -6.3526429      41.410738      221.31686      0.0021155101 
  49620000   306.32252     -5.6838341      37.958237      213.97916      0.0016862587 
  49630000   305.34941     -7.4257929      29.037466      202.7392       0.0032546041 
  49640000   304.82623     -4.6112549      41.19727       217.4032       0.00076021391
  49650000   328.59552     -14.538723      35.360963      215.73892      0.0025469538 
  49660000   334.4061      -9.0229952      29.699808      219.04023      0.00440703   
  49670000   306.7544      -9.0793075      33.789837      206.67147      0.0013526683 
  49680000   311.65751     -8.2191417      35.676686      212.32692      0.0019725868 
  49690000   297.13873     -15.216445      38.223766      199.26443      0.001720621  
  49700000   302.94065     -6.1169057      38.06884       211.65063      0.0027890573 
  49710000   265.35331     -13.819872      38.806282      182.389        0.0021100665 
  49720000   339.99931     -8.7722579      38.132461      231.0414       0.0036086405 
  49730000   301.09318     -9.3110623      32.475092      201.76684      0.0033816875 
  49740000   300.26792     -17.252959      42.473184      203.33351     -0.00016968557
  49750000   301.7601      -12.724285      37.463055      203.73719      0.0030356621 
  49760000   278.05659     -21.305661      39.948404      183.58069     -0.00032537171
  49770000   274.38931     -17.970185      29.60997       174.40236      0.0019699594 
  49780000   307.14438     -14.715161      34.51566       201.99277      0.0036653458 
  49790000   302.9973      -20.4219        33.02482       192.33522      0.0023759207 
  49800000   284.73101     -13.114668      36.76564       192.54806      0.0019221662 
  49810000   319.9941      -16.797988      34.36016       207.37666      0.0043678934 
  49820000   300.88357     -20.858348      30.005364      187.62549      0.001822343  
  49830000   300.43614     -13.212096      38.483053      203.48402      0.0014929703 
  49840000   304.00187     -20.688467      29.116986      188.75672      0.0024500591 
  49850000   266.66407     -11.757398      42.625103      189.04782      0.00034742716
  49860000   275.58127     -11.912447      29.022122      180.5793       0.0033058283 
  49870000   294.82956     -12.170521      41.693817      204.41065      0.0010829931 
  49880000   290.1397      -2.9238565      36.112017      205.29358      0.0021300556 
  49890000   302.40738      1.0958938      35.919703      216.39797      0.0025399729 
  49900000   288.52119      6.6611579      43.10298       220.90948      0.0031626228 
  49910000   287.72889      2.1193179      38.852462      211.64715      0.0011984368 
  49920000   336.21895     -2.6908528      34.789829      231.53774      0.0036734365 
  49930000   344.62806     -7.8648288      36.592925      233.15498      0.0048353541 
  49940000   317.06322     -7.2114289      34.386335      215.25085      0.0021502442 
  49950000   295.78804     -0.029408476    41.082681      216.50918      0.0013226347 
  49960000   324.12515      1.7548548      37.164849      231.18465      0.0033954084 
  49970000   278.37726     -0.30399462     34.955497      199.77966      0.0023368169 
  49980000   289.16664      2.4752937      35.800218      209.80373      0.0021207194 
  49990000   283.32939     -0.51702044     40.453134      208.00178     -2.9140857e-05
  50000000   286.61984      0.03664446     43.321767      213.37591      0.0011667984 
Loop time of 25934.5 on 1 procs for 50000000 steps with 200 atoms

Performance: 333.147 ns/day, 0.072 hours/ns, 1927.936 timesteps/s
65.5% CPU use with 1 MPI tasks x no OpenMP threads

MPI task timing breakdown:
Section |  min time  |  avg time  |  max time  |%varavg| %total
---------------------------------------------------------------
Pair    | 12947      | 12947      | 12947      |   0.0 | 49.92
Bond    | 67.492     | 67.492     | 67.492     |   0.0 |  0.26
Kspace  | 4750.7     | 4750.7     | 4750.7     |   0.0 | 18.32
Neigh   | 6616.9     | 6616.9     | 6616.9     |   0.0 | 25.51
Comm    | 336.82     | 336.82     | 336.82     |   0.0 |  1.30
Output  | 0.71209    | 0.71209    | 0.71209    |   0.0 |  0.00
Modify  | 1136.4     | 1136.4     | 1136.4     |   0.0 |  4.38
Other   |            | 78.37      |            |       |  0.30

Nlocal:            200 ave         200 max         200 min
Histogram: 1 0 0 0 0 0 0 0 0 0
Nghost:           1476 ave        1476 max        1476 min
Histogram: 1 0 0 0 0 0 0 0 0 0
Neighs:          15657 ave       15657 max       15657 min
Histogram: 1 0 0 0 0 0 0 0 0 0

Total # of neighbors = 15657
Ave neighs/atom = 78.285
Ave special neighs/atom = 2.94
Neighbor list builds = 754647
Dangerous builds = 0
write_data PDMAEMA.data
System init for write_data ...
PPPM initialization ...
  using 12-bit tables for long-range coulomb (src/kspace.cpp:342)
  G vector (1/distance) = 0.0045578333
  grid = 6 6 6
  stencil order = 5
  estimated absolute RMS force accuracy = 2.8540482e-06
  estimated relative force accuracy = 8.5948814e-09
  using double precision FFTW3
  3d grid and FFT values/proc = 1331 216
Generated 1 of 1 mixed pair_coeff terms from arithmetic mixing rule
Total wall time: 7:12:14
